REMARK  Name = /kaggle/input/datasets/simnoxchannel/h2o2-pdbqt/h2o2.pdb
REMARK  1 active torsions:
REMARK  status: ('A' for Active; 'I' for Inactive)
REMARK    1  A    between atoms: O1_1  and  O2_2
REMARK                            x       y       z     vdW  Elec       q    Type
REMARK                         _______ _______ _______ _____ _____    ______ ____
ROOT
ATOM      1  O1  H2O A   1       0.000   0.738   0.000  0.00  0.00    -0.253 OA
ATOM      2  H1  H2O A   1       0.809   0.973  -0.877  0.00  0.00    +0.253 HD
ENDROOT
BRANCH   1   3
ATOM      3  O2  H2O A   1       0.000  -0.738   0.000  0.00  0.00    -0.253 OA
ATOM      4  H2  H2O A   1      -0.809  -0.973  -0.877  0.00  0.00    +0.253 HD
ENDBRANCH   1   3
TORSDOF 1
