MODEL 1
REMARK VINA RESULT:    -1.201      0.000      0.000
REMARK INTER + INTRA:          -1.201
REMARK INTER:                  -1.201
REMARK INTRA:                   0.000
REMARK UNBOUND:                 0.000
REMARK  Name = /kaggle/input/datasets/simnoxchannel/h2o2-pdbqt/h2o2.pdb
REMARK  1 active torsions:
REMARK  status: ('A' for Active; 'I' for Inactive)
REMARK    1  A    between atoms: O1_1  and  O2_2
REMARK                            x       y       z     vdW  Elec       q    Type
REMARK                         _______ _______ _______ _____ _____    ______ ____
ROOT
ATOM      1  O1  H2O A   1      -4.399  -3.329   0.844  0.00  0.00    -0.253 OA
ATOM      2  H1  H2O A   1      -5.429  -3.783   0.385  0.00  0.00    +0.253 HD
ENDROOT
BRANCH   1   3
ATOM      3  O2  H2O A   1      -3.391  -4.165   0.163  0.00  0.00    -0.253 OA
ATOM      4  H2  H2O A   1      -3.048  -4.903   1.067  0.00  0.00    +0.253 HD
ENDBRANCH   1   3
TORSDOF 1
ENDMDL
MODEL 2
REMARK VINA RESULT:    -1.200      0.035      1.476
REMARK INTER + INTRA:          -1.200
REMARK INTER:                  -1.200
REMARK INTRA:                   0.000
REMARK UNBOUND:                 0.000
REMARK  Name = /kaggle/input/datasets/simnoxchannel/h2o2-pdbqt/h2o2.pdb
REMARK  1 active torsions:
REMARK  status: ('A' for Active; 'I' for Inactive)
REMARK    1  A    between atoms: O1_1  and  O2_2
REMARK                            x       y       z     vdW  Elec       q    Type
REMARK                         _______ _______ _______ _____ _____    ______ ____
ROOT
ATOM      1  O1  H2O A   1      -3.425  -4.159   0.171  0.00  0.00    -0.253 OA
ATOM      2  H1  H2O A   1      -2.390  -3.662   0.574  0.00  0.00    +0.253 HD
ENDROOT
BRANCH   1   3
ATOM      3  O2  H2O A   1      -4.429  -3.313   0.846  0.00  0.00    -0.253 OA
ATOM      4  H2  H2O A   1      -5.311  -4.122   1.061  0.00  0.00    +0.253 HD
ENDBRANCH   1   3
TORSDOF 1
ENDMDL
MODEL 3
REMARK VINA RESULT:    -1.172      4.389      4.540
REMARK INTER + INTRA:          -1.172
REMARK INTER:                  -1.172
REMARK INTRA:                   0.000
REMARK UNBOUND:                 0.000
REMARK  Name = /kaggle/input/datasets/simnoxchannel/h2o2-pdbqt/h2o2.pdb
REMARK  1 active torsions:
REMARK  status: ('A' for Active; 'I' for Inactive)
REMARK    1  A    between atoms: O1_1  and  O2_2
REMARK                            x       y       z     vdW  Elec       q    Type
REMARK                         _______ _______ _______ _____ _____    ______ ____
ROOT
ATOM      1  O1  H2O A   1      -3.546  -1.250   4.488  0.00  0.00    -0.253 OA
ATOM      2  H1  H2O A   1      -2.334  -1.231   4.389  0.00  0.00    +0.253 HD
ENDROOT
BRANCH   1   3
ATOM      3  O2  H2O A   1      -3.792  -2.690   4.698  0.00  0.00    -0.253 OA
ATOM      4  H2  H2O A   1      -5.008  -2.723   4.699  0.00  0.00    +0.253 HD
ENDBRANCH   1   3
TORSDOF 1
ENDMDL
MODEL 4
REMARK VINA RESULT:    -1.171      4.393      4.636
REMARK INTER + INTRA:          -1.171
REMARK INTER:                  -1.171
REMARK INTRA:                   0.000
REMARK UNBOUND:                 0.000
REMARK  Name = /kaggle/input/datasets/simnoxchannel/h2o2-pdbqt/h2o2.pdb
REMARK  1 active torsions:
REMARK  status: ('A' for Active; 'I' for Inactive)
REMARK    1  A    between atoms: O1_1  and  O2_2
REMARK                            x       y       z     vdW  Elec       q    Type
REMARK                         _______ _______ _______ _____ _____    ______ ____
ROOT
ATOM      1  O1  H2O A   1      -3.814  -2.674   4.698  0.00  0.00    -0.253 OA
ATOM      2  H1  H2O A   1      -3.044  -2.932   5.603  0.00  0.00    +0.253 HD
ENDROOT
BRANCH   1   3
ATOM      3  O2  H2O A   1      -3.544  -1.237   4.494  0.00  0.00    -0.253 OA
ATOM      4  H2  H2O A   1      -4.483  -0.736   5.082  0.00  0.00    +0.253 HD
ENDBRANCH   1   3
TORSDOF 1
ENDMDL
MODEL 5
REMARK VINA RESULT:    -1.128      4.125      4.356
REMARK INTER + INTRA:          -1.128
REMARK INTER:                  -1.128
REMARK INTRA:                   0.000
REMARK UNBOUND:                 0.000
REMARK  Name = /kaggle/input/datasets/simnoxchannel/h2o2-pdbqt/h2o2.pdb
REMARK  1 active torsions:
REMARK  status: ('A' for Active; 'I' for Inactive)
REMARK    1  A    between atoms: O1_1  and  O2_2
REMARK                            x       y       z     vdW  Elec       q    Type
REMARK                         _______ _______ _______ _____ _____    ______ ____
ROOT
ATOM      1  O1  H2O A   1      -3.037  -4.509   4.409  0.00  0.00    -0.253 OA
ATOM      2  H1  H2O A   1      -2.789  -4.947   5.516  0.00  0.00    +0.253 HD
ENDROOT
BRANCH   1   3
ATOM      3  O2  H2O A   1      -3.684  -3.227   4.748  0.00  0.00    -0.253 OA
ATOM      4  H2  H2O A   1      -2.791  -2.440   4.500  0.00  0.00    +0.253 HD
ENDBRANCH   1   3
TORSDOF 1
ENDMDL
MODEL 6
REMARK VINA RESULT:    -1.121      5.271      5.803
REMARK INTER + INTRA:          -1.121
REMARK INTER:                  -1.121
REMARK INTRA:                   0.000
REMARK UNBOUND:                 0.000
REMARK  Name = /kaggle/input/datasets/simnoxchannel/h2o2-pdbqt/h2o2.pdb
REMARK  1 active torsions:
REMARK  status: ('A' for Active; 'I' for Inactive)
REMARK    1  A    between atoms: O1_1  and  O2_2
REMARK                            x       y       z     vdW  Elec       q    Type
REMARK                         _______ _______ _______ _____ _____    ______ ____
ROOT
ATOM      1  O1  H2O A   1      -6.687   1.905  -0.582  0.00  0.00    -0.253 OA
ATOM      2  H1  H2O A   1      -5.810   2.109  -1.399  0.00  0.00    +0.253 HD
ENDROOT
BRANCH   1   3
ATOM      3  O2  H2O A   1      -6.043   0.899   0.284  0.00  0.00    -0.253 OA
ATOM      4  H2  H2O A   1      -5.014   0.686  -0.329  0.00  0.00    +0.253 HD
ENDBRANCH   1   3
TORSDOF 1
ENDMDL
MODEL 7
REMARK VINA RESULT:    -1.093      4.269      4.626
REMARK INTER + INTRA:          -1.093
REMARK INTER:                  -1.093
REMARK INTRA:                   0.000
REMARK UNBOUND:                 0.000
REMARK  Name = /kaggle/input/datasets/simnoxchannel/h2o2-pdbqt/h2o2.pdb
REMARK  1 active torsions:
REMARK  status: ('A' for Active; 'I' for Inactive)
REMARK    1  A    between atoms: O1_1  and  O2_2
REMARK                            x       y       z     vdW  Elec       q    Type
REMARK                         _______ _______ _______ _____ _____    ______ ____
ROOT
ATOM      1  O1  H2O A   1      -6.967  -1.782  -2.568  0.00  0.00    -0.253 OA
ATOM      2  H1  H2O A   1      -5.818  -2.153  -2.710  0.00  0.00    +0.253 HD
ENDROOT
BRANCH   1   3
ATOM      3  O2  H2O A   1      -6.970  -1.399  -1.143  0.00  0.00    -0.253 OA
ATOM      4  H2  H2O A   1      -7.953  -0.685  -1.093  0.00  0.00    +0.253 HD
ENDBRANCH   1   3
TORSDOF 1
ENDMDL
MODEL 8
REMARK VINA RESULT:    -1.084      5.021      5.258
REMARK INTER + INTRA:          -1.084
REMARK INTER:                  -1.084
REMARK INTRA:                   0.000
REMARK UNBOUND:                 0.000
REMARK  Name = /kaggle/input/datasets/simnoxchannel/h2o2-pdbqt/h2o2.pdb
REMARK  1 active torsions:
REMARK  status: ('A' for Active; 'I' for Inactive)
REMARK    1  A    between atoms: O1_1  and  O2_2
REMARK                            x       y       z     vdW  Elec       q    Type
REMARK                         _______ _______ _______ _____ _____    ______ ____
ROOT
ATOM      1  O1  H2O A   1      -6.162  -1.830  -4.015  0.00  0.00    -0.253 OA
ATOM      2  H1  H2O A   1      -6.859  -2.547  -4.707  0.00  0.00    +0.253 HD
ENDROOT
BRANCH   1   3
ATOM      3  O2  H2O A   1      -6.917  -1.838  -2.747  0.00  0.00    -0.253 OA
ATOM      4  H2  H2O A   1      -6.329  -2.704  -2.129  0.00  0.00    +0.253 HD
ENDBRANCH   1   3
TORSDOF 1
ENDMDL
MODEL 9
REMARK VINA RESULT:    -1.083      8.188      8.188
REMARK INTER + INTRA:          -1.083
REMARK INTER:                  -1.083
REMARK INTRA:                   0.000
REMARK UNBOUND:                 0.000
REMARK  Name = /kaggle/input/datasets/simnoxchannel/h2o2-pdbqt/h2o2.pdb
REMARK  1 active torsions:
REMARK  status: ('A' for Active; 'I' for Inactive)
REMARK    1  A    between atoms: O1_1  and  O2_2
REMARK                            x       y       z     vdW  Elec       q    Type
REMARK                         _______ _______ _______ _____ _____    ______ ____
ROOT
ATOM      1  O1  H2O A   1       0.656  -2.462   7.442  0.00  0.00    -0.253 OA
ATOM      2  H1  H2O A   1       0.880  -1.940   6.366  0.00  0.00    +0.253 HD
ENDROOT
BRANCH   1   3
ATOM      3  O2  H2O A   1       0.664  -3.891   7.073  0.00  0.00    -0.253 OA
ATOM      4  H2  H2O A   1      -0.041  -4.362   7.945  0.00  0.00    +0.253 HD
ENDBRANCH   1   3
TORSDOF 1
ENDMDL
MODEL 10
REMARK VINA RESULT:    -1.082      7.975      8.056
REMARK INTER + INTRA:          -1.082
REMARK INTER:                  -1.082
REMARK INTRA:                   0.000
REMARK UNBOUND:                 0.000
REMARK  Name = /kaggle/input/datasets/simnoxchannel/h2o2-pdbqt/h2o2.pdb
REMARK  1 active torsions:
REMARK  status: ('A' for Active; 'I' for Inactive)
REMARK    1  A    between atoms: O1_1  and  O2_2
REMARK                            x       y       z     vdW  Elec       q    Type
REMARK                         _______ _______ _______ _____ _____    ______ ____
ROOT
ATOM      1  O1  H2O A   1       0.482  -4.398   6.773  0.00  0.00    -0.253 OA
ATOM      2  H1  H2O A   1      -0.530  -4.214   6.124  0.00  0.00    +0.253 HD
ENDROOT
BRANCH   1   3
ATOM      3  O2  H2O A   1       0.690  -3.061   7.362  0.00  0.00    -0.253 OA
ATOM      4  H2  H2O A   1       0.655  -3.319   8.550  0.00  0.00    +0.253 HD
ENDBRANCH   1   3
TORSDOF 1
ENDMDL
MODEL 11
REMARK VINA RESULT:    -1.067      0.845      1.139
REMARK INTER + INTRA:          -1.067
REMARK INTER:                  -1.067
REMARK INTRA:                   0.000
REMARK UNBOUND:                 0.000
REMARK  Name = /kaggle/input/datasets/simnoxchannel/h2o2-pdbqt/h2o2.pdb
REMARK  1 active torsions:
REMARK  status: ('A' for Active; 'I' for Inactive)
REMARK    1  A    between atoms: O1_1  and  O2_2
REMARK                            x       y       z     vdW  Elec       q    Type
REMARK                         _______ _______ _______ _____ _____    ______ ____
ROOT
ATOM      1  O1  H2O A   1      -3.697  -4.035   0.293  0.00  0.00    -0.253 OA
ATOM      2  H1  H2O A   1      -4.428  -5.004   0.371  0.00  0.00    +0.253 HD
ENDROOT
BRANCH   1   3
ATOM      3  O2  H2O A   1      -2.375  -4.682   0.191  0.00  0.00    -0.253 OA
ATOM      4  H2  H2O A   1      -2.171  -4.613  -1.006  0.00  0.00    +0.253 HD
ENDBRANCH   1   3
TORSDOF 1
ENDMDL
MODEL 12
REMARK VINA RESULT:    -1.049      6.703      7.183
REMARK INTER + INTRA:          -1.049
REMARK INTER:                  -1.049
REMARK INTRA:                   0.000
REMARK UNBOUND:                 0.000
REMARK  Name = /kaggle/input/datasets/simnoxchannel/h2o2-pdbqt/h2o2.pdb
REMARK  1 active torsions:
REMARK  status: ('A' for Active; 'I' for Inactive)
REMARK    1  A    between atoms: O1_1  and  O2_2
REMARK                            x       y       z     vdW  Elec       q    Type
REMARK                         _______ _______ _______ _____ _____    ______ ____
ROOT
ATOM      1  O1  H2O A   1      -6.722   2.159  -0.690  0.00  0.00    -0.253 OA
ATOM      2  H1  H2O A   1      -5.629   2.289  -0.173  0.00  0.00    +0.253 HD
ENDROOT
BRANCH   1   3
ATOM      3  O2  H2O A   1      -6.560   2.977  -1.908  0.00  0.00    -0.253 OA
ATOM      4  H2  H2O A   1      -5.466   3.471  -1.716  0.00  0.00    +0.253 HD
ENDBRANCH   1   3
TORSDOF 1
ENDMDL
MODEL 13
REMARK VINA RESULT:    -1.042      0.808      1.026
REMARK INTER + INTRA:          -1.042
REMARK INTER:                  -1.042
REMARK INTRA:                   0.000
REMARK UNBOUND:                 0.000
REMARK  Name = /kaggle/input/datasets/simnoxchannel/h2o2-pdbqt/h2o2.pdb
REMARK  1 active torsions:
REMARK  status: ('A' for Active; 'I' for Inactive)
REMARK    1  A    between atoms: O1_1  and  O2_2
REMARK                            x       y       z     vdW  Elec       q    Type
REMARK                         _______ _______ _______ _____ _____    ______ ____
ROOT
ATOM      1  O1  H2O A   1      -3.713  -3.932   0.414  0.00  0.00    -0.253 OA
ATOM      2  H1  H2O A   1      -3.872  -4.932   1.087  0.00  0.00    +0.253 HD
ENDROOT
BRANCH   1   3
ATOM      3  O2  H2O A   1      -2.961  -4.477  -0.733  0.00  0.00    -0.253 OA
ATOM      4  H2  H2O A   1      -3.489  -5.564  -0.866  0.00  0.00    +0.253 HD
ENDBRANCH   1   3
TORSDOF 1
ENDMDL
MODEL 14
REMARK VINA RESULT:    -1.004      4.972      5.158
REMARK INTER + INTRA:          -1.004
REMARK INTER:                  -1.004
REMARK INTRA:                   0.000
REMARK UNBOUND:                 0.000
REMARK  Name = /kaggle/input/datasets/simnoxchannel/h2o2-pdbqt/h2o2.pdb
REMARK  1 active torsions:
REMARK  status: ('A' for Active; 'I' for Inactive)
REMARK    1  A    between atoms: O1_1  and  O2_2
REMARK                            x       y       z     vdW  Elec       q    Type
REMARK                         _______ _______ _______ _____ _____    ______ ____
ROOT
ATOM      1  O1  H2O A   1      -4.948   1.008   1.182  0.00  0.00    -0.253 OA
ATOM      2  H1  H2O A   1      -5.471   1.433   2.194  0.00  0.00    +0.253 HD
ENDROOT
BRANCH   1   3
ATOM      3  O2  H2O A   1      -6.092   1.000   0.251  0.00  0.00    -0.253 OA
ATOM      4  H2  H2O A   1      -6.770   0.105   0.718  0.00  0.00    +0.253 HD
ENDBRANCH   1   3
TORSDOF 1
ENDMDL
MODEL 15
REMARK VINA RESULT:    -0.988      4.281      4.425
REMARK INTER + INTRA:          -0.988
REMARK INTER:                  -0.988
REMARK INTRA:                   0.000
REMARK UNBOUND:                 0.000
REMARK  Name = /kaggle/input/datasets/simnoxchannel/h2o2-pdbqt/h2o2.pdb
REMARK  1 active torsions:
REMARK  status: ('A' for Active; 'I' for Inactive)
REMARK    1  A    between atoms: O1_1  and  O2_2
REMARK                            x       y       z     vdW  Elec       q    Type
REMARK                         _______ _______ _______ _____ _____    ______ ____
ROOT
ATOM      1  O1  H2O A   1      -7.103  -1.459  -1.443  0.00  0.00    -0.253 OA
ATOM      2  H1  H2O A   1      -7.294  -0.602  -2.285  0.00  0.00    +0.253 HD
ENDROOT
BRANCH   1   3
ATOM      3  O2  H2O A   1      -6.632  -0.643  -0.307  0.00  0.00    -0.253 OA
ATOM      4  H2  H2O A   1      -5.537  -0.295  -0.706  0.00  0.00    +0.253 HD
ENDBRANCH   1   3
TORSDOF 1
ENDMDL
MODEL 16
REMARK VINA RESULT:    -0.923      0.899      0.899
REMARK INTER + INTRA:          -0.923
REMARK INTER:                  -0.923
REMARK INTRA:                   0.000
REMARK UNBOUND:                 0.000
REMARK  Name = /kaggle/input/datasets/simnoxchannel/h2o2-pdbqt/h2o2.pdb
REMARK  1 active torsions:
REMARK  status: ('A' for Active; 'I' for Inactive)
REMARK    1  A    between atoms: O1_1  and  O2_2
REMARK                            x       y       z     vdW  Elec       q    Type
REMARK                         _______ _______ _______ _____ _____    ______ ____
ROOT
ATOM      1  O1  H2O A   1      -4.663  -3.765   1.769  0.00  0.00    -0.253 OA
ATOM      2  H1  H2O A   1      -4.792  -4.932   2.084  0.00  0.00    +0.253 HD
ENDROOT
BRANCH   1   3
ATOM      3  O2  H2O A   1      -3.964  -3.893   0.476  0.00  0.00    -0.253 OA
ATOM      4  H2  H2O A   1      -2.821  -4.086   0.844  0.00  0.00    +0.253 HD
ENDBRANCH   1   3
TORSDOF 1
ENDMDL
MODEL 17
REMARK VINA RESULT:    -0.891      3.822      4.294
REMARK INTER + INTRA:          -0.891
REMARK INTER:                  -0.891
REMARK INTRA:                   0.000
REMARK UNBOUND:                 0.000
REMARK  Name = /kaggle/input/datasets/simnoxchannel/h2o2-pdbqt/h2o2.pdb
REMARK  1 active torsions:
REMARK  status: ('A' for Active; 'I' for Inactive)
REMARK    1  A    between atoms: O1_1  and  O2_2
REMARK                            x       y       z     vdW  Elec       q    Type
REMARK                         _______ _______ _______ _____ _____    ______ ____
ROOT
ATOM      1  O1  H2O A   1      -3.544   0.904   1.578  0.00  0.00    -0.253 OA
ATOM      2  H1  H2O A   1      -2.386   0.736   1.247  0.00  0.00    +0.253 HD
ENDROOT
BRANCH   1   3
ATOM      3  O2  H2O A   1      -3.902  -0.445   2.059  0.00  0.00    -0.253 OA
ATOM      4  H2  H2O A   1      -2.818  -0.996   2.040  0.00  0.00    +0.253 HD
ENDBRANCH   1   3
TORSDOF 1
ENDMDL
MODEL 18
REMARK VINA RESULT:    -0.856      5.177      5.577
REMARK INTER + INTRA:          -0.856
REMARK INTER:                  -0.856
REMARK INTRA:                   0.000
REMARK UNBOUND:                 0.000
REMARK  Name = /kaggle/input/datasets/simnoxchannel/h2o2-pdbqt/h2o2.pdb
REMARK  1 active torsions:
REMARK  status: ('A' for Active; 'I' for Inactive)
REMARK    1  A    between atoms: O1_1  and  O2_2
REMARK                            x       y       z     vdW  Elec       q    Type
REMARK                         _______ _______ _______ _____ _____    ______ ____
ROOT
ATOM      1  O1  H2O A   1      -3.160   2.330   1.721  0.00  0.00    -0.253 OA
ATOM      2  H1  H2O A   1      -3.355   2.507   2.908  0.00  0.00    +0.253 HD
ENDROOT
BRANCH   1   3
ATOM      3  O2  H2O A   1      -3.578   0.923   1.569  0.00  0.00    -0.253 OA
ATOM      4  H2  H2O A   1      -3.422   0.508   2.701  0.00  0.00    +0.253 HD
ENDBRANCH   1   3
TORSDOF 1
ENDMDL
MODEL 19
REMARK VINA RESULT:    -0.838      1.782      2.449
REMARK INTER + INTRA:          -0.838
REMARK INTER:                  -0.838
REMARK INTRA:                   0.000
REMARK UNBOUND:                 0.000
REMARK  Name = /kaggle/input/datasets/simnoxchannel/h2o2-pdbqt/h2o2.pdb
REMARK  1 active torsions:
REMARK  status: ('A' for Active; 'I' for Inactive)
REMARK    1  A    between atoms: O1_1  and  O2_2
REMARK                            x       y       z     vdW  Elec       q    Type
REMARK                         _______ _______ _______ _____ _____    ______ ____
ROOT
ATOM      1  O1  H2O A   1      -1.805  -5.377   1.256  0.00  0.00    -0.253 OA
ATOM      2  H1  H2O A   1      -1.537  -6.400   0.656  0.00  0.00    +0.253 HD
ENDROOT
BRANCH   1   3
ATOM      3  O2  H2O A   1      -2.566  -4.636   0.231  0.00  0.00    -0.253 OA
ATOM      4  H2  H2O A   1      -1.766  -3.773  -0.078  0.00  0.00    +0.253 HD
ENDBRANCH   1   3
TORSDOF 1
ENDMDL
